LAMMPS CG data file

500 atoms

2 atom types

-12.91797652226526 12.91797652226526 xlo xhi
-12.91797652226526 12.91797652226526 ylo yhi
-12.91797652226526 12.91797652226526 zlo zhi

Atoms

1 1 11.489887237548828 3.9272513389587402 10.316956520080566
2 1 13.55954360961914 3.9790215492248535 9.719446182250977
3 1 12.695140838623047 2.1679766178131104 10.31045150756836
4 1 7.365996360778809 3.251906633377075 7.411531448364258
5 1 6.304901123046875 4.032866477966309 5.78083610534668
6 1 8.344051361083984 4.404386520385742 5.975116729736328
7 1 11.046340942382812 1.0302764177322388 6.72633171081543
8 1 13.155769348144531 1.1225262880325317 6.584111213684082
9 1 12.301979064941406 25.759376525878906 8.042741775512695
10 1 7.357451438903809 23.41872787475586 5.096806526184082
11 1 7.422251224517822 21.59955596923828 3.9792261123657227
12 1 7.128811836242676 21.631362915039062 6.114626407623291
13 1 3.6405813694000244 24.91997718811035 8.739866256713867
14 1 2.206176519393921 24.42357635498047 10.274955749511719
15 1 2.015177011489868 23.732177734375 8.280976295471191
16 1 3.3689167499542236 23.847227096557617 4.262491226196289
17 1 2.043126344680786 22.211116790771484 4.2134013175964355
18 1 1.253576397895813 24.181676864624023 4.361261367797852
19 1 5.422571182250977 12.564227104187012 1.487876534461975
20 1 7.289961338043213 24.691726684570312 0.8799768686294556
21 1 7.209251403808594 0.5920764207839966 2.016176462173462
22 1 5.450876235961914 1.5297267436981201 24.805727005004883
23 1 7.465551376342773 1.2054263353347778 24.223926544189453
24 1 7.00883150100708 2.776076555252075 25.445327758789062
25 1 1.8309767246246338 2.469426393508911 23.209976196289062
26 1 0.5387765169143677 1.0835262537002563 22.316051483154297
27 1 2.627551794052124 1.1175767183303833 21.838682174682617
28 1 0.8754264116287231 4.767166614532471 21.49008560180664
29 1 24.83987808227539 3.9593214988708496 20.84353256225586
30 1 0.8087764978408813 3.4350616931915283 19.875591278076172
31 1 22.8586368560791 8.863861083984375 8.792816162109375
32 1 22.68415641784668 7.813511848449707 10.625931739807129
33 1 24.355976104736328 7.450441360473633 9.427471160888672
34 1 0.6869765520095825 10.155121803283691 5.320656776428223
35 1 1.5494261980056763 9.196756362915039 3.650541305541992
36 1 12.916226387023926 10.540961265563965 3.343101739883423
37 1 0.7105766534805298 15.694437026977539 6.154031276702881
38 1 12.773277282714844 17.57687759399414 6.467391490936279
39 1 24.473876953125 15.857166290283203 6.419711112976074
40 1 3.949826240539551 15.573331832885742 3.8590664863586426
41 1 5.8544511795043945 16.5802001953125 3.885281562805176
42 1 5.611736297607422 14.770357131958008 4.87222146987915
43 1 4.609686374664307 13.528786659240723 0.7043763399124146
44 1 6.216406345367432 12.726797103881836 25.440128326416016
45 1 4.879166603088379 11.451866149902344 0.6230765581130981
46 1 13.034727096557617 15.608156204223633 1.8236267566680908
47 1 13.093076705932617 17.705156326293945 2.0631263256073
48 1 0.8209267854690552 16.84217071533203 0.30847659707069397
49 1 22.806236267089844 14.182710647583008 1.8846266269683838
50 1 21.857772827148438 13.824820518493652 3.7274367809295654
51 1 22.394195556640625 12.22397232055664 2.4436614513397217
52 1 20.077756881713867 14.522516250610352 12.989127159118652
53 1 18.785486221313477 13.980286598205566 1.61367666721344
54 1 19.39089584350586 12.526845932006836 13.174276351928711
55 1 23.159286499023438 15.865550994873047 22.242807388305664
56 1 25.304977416992188 15.981281280517578 22.437131881713867
57 1 24.426578521728516 14.332857131958008 21.432186126708984
58 1 22.599788665771484 15.00926685333252 18.323230743408203
59 1 24.579626083374023 14.851106643676758 17.697816848754883
60 1 23.927627563476562 16.60527801513672 18.5743408203125
61 1 21.632442474365234 13.215076446533203 9.483616828918457
62 1 21.42058563232422 13.02087688446045 7.418371200561523
63 1 22.863201141357422 24.732126235961914 8.427501678466797
64 1 24.72347640991211 1.614676594734192 10.343332290649414
65 1 25.251827239990234 2.3564069271087646 8.407386779785156
66 1 23.80392837524414 3.3169314861297607 9.606315612792969
67 1 24.772926330566406 4.1915764808654785 13.806013107299805
68 1 24.057777404785156 5.693801403045654 15.031295776367188
69 1 24.780826568603516 3.9763612747192383 15.900701522827148
70 1 2.323976755142212 4.620741367340088 15.139081954956055
71 1 1.6809766292572021 6.245486259460449 16.35391616821289
72 1 1.5932265520095825 6.420166015625 14.31001091003418
73 1 3.8498611450195312 2.8856465816497803 10.496871948242188
74 1 3.390681505203247 4.241276264190674 8.912086486816406
75 1 4.878766059875488 4.71726655960083 10.357301712036133
76 1 7.029166221618652 24.704227447509766 11.758264541625977
77 1 8.767851829528809 23.716476440429688 11.098337173461914
78 1 8.937531471252441 25.461776733398438 12.258279800415039
79 1 4.110306739807129 23.04427146911621 13.682723999023438
80 1 2.3447868824005127 22.187162399291992 12.906906127929688
81 1 2.264726400375366 24.02672576904297 13.924793243408203
82 1 6.049721717834473 23.36697769165039 18.718896865844727
83 1 5.944266319274902 23.8897762298584 20.761171340942383
84 1 4.267681121826172 23.070152282714844 19.767881393432617
85 1 4.4933366775512695 19.67966651916504 16.21978187561035
86 1 2.802436590194702 18.570491790771484 15.932846069335938
87 1 3.4296212196350098 19.118572235107422 17.907451629638672
88 1 7.914346694946289 16.389541625976562 16.689701080322266
89 1 8.929222106933594 14.85511589050293 15.671710968017578
90 1 7.756491661071777 16.16332244873047 14.505236625671387
91 1 16.136186599731445 11.00538158416748 3.9275712966918945
92 1 18.237552642822266 10.557266235351562 3.9266209602355957
93 1 16.974515914916992 9.654821395874023 2.4986765384674072
94 1 13.01536750793457 7.65701150894165 5.830476760864258
95 1 12.97008991241455 5.6003313064575195 6.2256364822387695
96 1 14.694531440734863 6.696591377258301 6.7052764892578125
97 1 15.155111312866211 10.823797225952148 8.195550918579102
98 1 17.089611053466797 11.683481216430664 7.929766654968262
99 1 15.299476623535156 12.851615905761719 7.821541786193848
100 1 14.114702224731445 12.072066307067871 11.101816177368164
101 1 15.154167175292969 13.837825775146484 11.462202072143555
102 1 13.084545135498047 13.917957305908203 11.411511421203613
103 1 10.567827224731445 10.426937103271484 14.592996597290039
104 1 8.898536682128906 10.642807006835938 15.880950927734375
105 1 8.618021965026855 9.982646942138672 13.990717887878418
106 1 14.079166412353516 8.349091529846191 15.081911087036133
107 1 14.850311279296875 9.103541374206543 16.889150619506836
108 1 15.120506286621094 10.229206085205078 15.11134147644043
109 1 16.795242309570312 7.10080623626709 12.473390579223633
110 1 18.13319206237793 8.191366195678711 11.250225067138672
111 1 16.705331802368164 6.973366737365723 10.367391586303711
112 1 17.960407257080078 3.926266670227051 11.87144947052002
113 1 19.663162231445312 4.2892961502075195 10.738616943359375
114 1 19.495031356811523 5.039811611175537 12.712455749511719
115 1 19.168901443481445 2.001126527786255 14.441495895385742
116 1 20.56604766845703 2.445676565170288 15.938411712646484
117 1 18.686046600341797 1.768476128578186 16.429872512817383
118 1 17.667221069335938 22.81756591796875 13.241706848144531
119 1 16.758060455322266 20.928991317749023 13.023200988769531
120 1 17.03949737548828 21.789491653442383 14.93510627746582
121 1 22.96352767944336 23.11202621459961 23.480220794677734
122 1 23.543277740478516 24.731525421142578 24.727176666259766
123 1 22.572242736816406 25.049076080322266 22.87826156616211
124 1 25.4913272857666 21.484256744384766 19.281387329101562
125 1 0.5727263689041138 21.622093200683594 17.353740692138672
126 1 0.5278764963150024 23.29537582397461 18.622276306152344
127 1 1.3134762048721313 22.788311004638672 23.78007698059082
128 1 1.5204263925552368 23.961576461791992 12.584426879882812
129 1 0.7073265314102173 21.98221206665039 12.617927551269531
130 1 3.654956579208374 19.6474609375 24.80972671508789
131 1 4.253671169281006 19.401565551757812 0.9617763757705688
132 1 4.025501251220703 21.303855895996094 13.053227424621582
133 1 6.740771293640137 19.687305450439453 24.48337745666504
134 1 7.3631463050842285 18.57240104675293 0.27867618203163147
135 1 6.999746322631836 17.580196380615234 24.305225372314453
136 1 9.324041366577148 19.6439208984375 20.021957397460938
137 1 10.301331520080566 19.62778091430664 18.14194679260254
138 1 9.585131645202637 21.426937103271484 18.93088150024414
139 1 11.656024932861328 20.95000648498535 22.903152465820312
140 1 12.735208511352539 19.319326400756836 23.69222640991211
141 1 11.098796844482422 20.116641998291016 24.75257682800293
142 1 11.072776794433594 24.833927154541016 20.91242218017578
143 1 10.317926406860352 24.95842742919922 18.940502166748047
144 1 9.340811729431152 0.09352651238441467 20.481937408447266
145 1 13.141521453857422 0.8844767808914185 24.538026809692383
146 1 12.35392951965332 2.465846300125122 12.706477165222168
147 1 12.654176712036133 2.6934516429901123 23.576675415039062
148 1 17.913471221923828 13.358576774597168 24.457176208496094
149 1 19.783666610717773 12.885526657104492 25.308277130126953
150 1 18.55966567993164 24.272777557373047 24.58547592163086
151 1 12.593888282775879 15.869951248168945 4.997906684875488
152 1 11.703983306884766 15.604310989379883 6.8453264236450195
153 1 11.849380493164062 14.050111770629883 5.440276145935059
154 1 10.859221458435059 17.03386688232422 2.625986337661743
155 1 10.590911865234375 18.483356475830078 4.1954264640808105
156 1 11.982366561889648 18.813365936279297 2.7587368488311768
157 1 13.093171119689941 14.542242050170898 24.365127563476562
158 1 14.699871063232422 13.20755386352539 24.316226959228516
159 1 12.847379684448242 12.526617050170898 25.004926681518555
160 1 9.250255584716797 13.006200790405273 21.392057418823242
161 1 7.609461784362793 11.913702011108398 20.654430389404297
162 1 7.306941509246826 13.777862548828125 21.65475082397461
163 1 12.875690460205078 13.738330841064453 20.359827041625977
164 1 13.25589656829834 11.914566040039062 19.323715209960938
165 1 12.265935897827148 13.505775451660156 18.369876861572266
166 1 13.692825317382812 18.172462463378906 17.497636795043945
167 1 13.845195770263672 19.816547393798828 16.201261520385742
168 1 13.716409683227539 20.132266998291016 18.273670196533203
169 1 16.56844139099121 16.498506546020508 17.437591552734375
170 1 16.374156951904297 15.130386352539062 15.76346206665039
171 1 16.057857513427734 14.475212097167969 17.687828063964844
172 1 17.599712371826172 19.89845085144043 20.554805755615234
173 1 17.083560943603516 21.916030883789062 20.02798080444336
174 1 16.11899185180664 20.87199592590332 21.592416763305664
175 1 17.652530670166016 17.63174819946289 24.52832794189453
176 1 16.164932250976562 16.911380767822266 12.941126823425293
177 1 16.21268081665039 18.938007354736328 25.28287696838379
178 1 21.481616973876953 19.20450210571289 1.0418263673782349
179 1 22.900691986083984 19.48160171508789 2.592876672744751
180 1 22.534175872802734 20.997196197509766 1.197426438331604
181 1 24.087026596069336 9.991776466369629 20.971776962280273
182 1 22.032676696777344 10.179327011108398 20.344078063964844
183 1 23.096101760864258 8.470566749572754 19.89319610595703
184 1 2.5705268383026123 11.55013656616211 20.549095153808594
185 1 3.3716814517974854 12.272466659545898 22.322887420654297
186 1 3.945606231689453 10.381095886230469 21.585262298583984
187 1 4.941606521606445 9.650285720825195 17.532501220703125
188 1 5.913906097412109 7.92060661315918 16.924118041992188
189 1 4.154821395874023 8.567831039428711 15.97572135925293
190 1 4.755600929260254 14.393516540527344 17.72222137451172
191 1 5.5291314125061035 15.501381874084473 19.365631103515625
192 1 3.4321868419647217 15.576786041259766 18.955142974853516
193 1 1.1010266542434692 14.53866195678711 13.957401275634766
194 1 24.852327346801758 14.566871643066406 14.155141830444336
195 1 12.938526153564453 12.73538589477539 14.169292449951172
196 1 2.3994762897491455 12.60331916809082 10.727275848388672
197 1 0.7248765230178833 11.289616584777832 10.590621948242188
198 1 13.361377716064453 13.330709457397461 10.957146644592285
199 1 6.720946311950684 14.822356224060059 9.156181335449219
200 1 8.500946998596191 13.726949691772461 9.018217086791992
201 1 7.5779314041137695 14.026618957519531 10.903596878051758
202 1 5.467931270599365 19.01319122314453 8.807596206665039
203 1 4.471371650695801 20.311382293701172 7.428491592407227
204 1 4.918691635131836 20.990890502929688 9.356697082519531
205 1 9.767706871032715 18.202068328857422 11.89090347290039
206 1 10.718106269836426 18.002317428588867 13.807762145996094
207 1 9.515886306762695 19.66645050048828 13.324840545654297
208 1 11.325541496276855 21.33945083618164 7.767786979675293
209 1 12.617897987365723 21.91573715209961 6.171116828918457
210 1 13.099514961242676 20.232585906982422 7.319531440734863
211 1 15.537246704101562 6.427026748657227 22.53879737854004
212 1 14.783916473388672 4.74704122543335 21.375778198242188
213 1 14.50503158569336 6.659691333770752 20.73699188232422
214 1 18.086376190185547 10.270476341247559 21.43189239501953
215 1 17.681976318359375 11.777076721191406 20.010101318359375
216 1 17.777841567993164 12.182645797729492 22.10142707824707
217 1 21.08519744873047 6.4508161544799805 23.288637161254883
218 1 20.684757232666016 4.399561405181885 22.893917083740234
219 1 19.80261993408203 5.433576583862305 24.619876861572266
220 1 25.058027267456055 9.220376968383789 24.500076293945312
221 1 1.2330762147903442 9.832966804504395 24.406326293945312
222 1 0.7440263032913208 7.917051315307617 24.998027801513672
223 1 24.179676055908203 5.396846294403076 1.2334266901016235
224 1 13.072426795959473 4.413046360015869 1.8136765956878662
225 1 12.465876579284668 6.116186141967773 2.7938668727874756
226 1 21.48038673400879 5.980451583862305 5.232096195220947
227 1 20.83709716796875 6.419076442718506 7.162196159362793
228 1 19.69013214111328 7.016386032104492 5.546131134033203
229 1 22.435787200927734 2.478876829147339 3.0785915851593018
230 1 24.274425506591797 1.422326683998108 3.3258016109466553
231 1 23.14270782470703 1.9561269283294678 5.0283613204956055
232 1 17.987321853637695 1.7268764972686768 5.195616722106934
233 1 17.43853187561035 1.2728768587112427 7.1968464851379395
234 1 17.569766998291016 3.3316566944122314 6.508241653442383
235 1 15.466211318969727 4.167361259460449 2.884631395339966
236 1 14.923465728759766 6.088321685791016 2.060426950454712
237 1 14.839736938476562 4.3323163986206055 0.9550262689590454
238 1 14.07724666595459 24.208126068115234 2.2704765796661377
239 1 12.76038932800293 22.80299186706543 1.3423763513565063
240 1 12.21352767944336 23.784427642822266 3.13824200630188
241 1 18.196971893310547 21.02225112915039 3.3192169666290283
242 1 16.788291931152344 19.452377319335938 2.976501703262329
243 1 16.165966033935547 21.43496322631836 3.2599966526031494
244 1 18.347675323486328 23.194807052612305 8.07280158996582
245 1 17.191696166992188 24.195575714111328 9.627421379089355
246 1 16.34720230102539 22.732847213745117 8.43307113647461
247 1 18.770511627197266 19.31271743774414 7.845451354980469
248 1 17.59196662902832 17.687646865844727 7.177241325378418
249 1 19.35871124267578 18.183380126953125 6.160186767578125
250 1 23.94582748413086 18.568252563476562 9.538256645202637
251 1 13.1149263381958 18.520530700683594 9.7630615234375
252 1 24.989276885986328 20.337627410888672 9.889825820922852
253 1 23.247901916503906 19.685911178588867 12.917303085327148
254 1 24.501827239990234 20.923240661621094 14.09372329711914
255 1 22.506282806396484 21.468708038330078 13.708840370178223
256 1 21.36126708984375 19.026065826416016 15.802836418151855
257 1 21.107131958007812 20.354480743408203 17.485240936279297
258 1 19.4580078125 19.766002655029297 16.355072021484375
259 1 19.4643611907959 15.242146492004395 12.17408561706543
260 1 19.288448333740234 15.371061325073242 10.084526062011719
261 1 21.196796417236328 15.316986083984375 10.923846244812012
262 1 19.678302764892578 12.105051040649414 12.771869659423828
263 1 19.827987670898438 11.708786010742188 10.749051094055176
264 1 21.590805053710938 11.901704788208008 11.87902545928955
265 1 21.83359146118164 9.937256813049316 15.487466812133789
266 1 23.882976531982422 9.71047592163086 15.902671813964844
267 1 22.61813735961914 10.830666542053223 17.200660705566406
268 1 19.818012237548828 6.462106704711914 17.494121551513672
269 1 19.66645622253418 5.218446731567383 19.194217681884766
270 1 18.129859924316406 6.546456336975098 18.707672119140625
271 1 12.944887161254883 24.99907684326172 14.33855152130127
272 1 12.613300323486328 22.97635269165039 13.870414733886719
273 1 11.10125732421875 24.084726333618164 14.833391189575195
274 1 13.933822631835938 2.5679218769073486 17.753620147705078
275 1 15.87904167175293 3.0923163890838623 18.237300872802734
276 1 14.809736251831055 4.328961372375488 16.9749755859375
277 1 9.725811004638672 4.649466514587402 17.515045166015625
278 1 8.904096603393555 5.587161064147949 15.79539680480957
279 1 10.668156623840332 6.330421447753906 16.687545776367188
280 1 10.987471580505371 7.150506019592285 21.071712493896484
281 1 11.197526931762695 9.154497146606445 20.38279151916504
282 1 9.851911544799805 7.845216751098633 19.43756675720215
283 1 6.94339656829834 4.343356132507324 21.38132095336914
284 1 5.890066146850586 3.3418915271759033 19.7967529296875
285 1 6.029291152954102 5.426841735839844 19.780506134033203
286 1 8.617801666259766 8.383646011352539 24.125526428222656
287 1 9.727956771850586 10.131296157836914 23.883777618408203
288 1 10.660451889038086 8.400481224060059 24.66382598876953
289 1 9.45596694946289 6.818490982055664 2.05212664604187
290 1 10.918716430664062 5.37458610534668 2.6909263134002686
291 1 9.019556045532227 4.747621536254883 2.2368266582489014
292 1 7.41175651550293 10.687400817871094 3.2533814907073975
293 1 8.268880844116211 12.606040954589844 3.2031867504119873
294 1 9.499396324157715 10.917245864868164 3.6272614002227783
295 1 5.903171539306641 9.078866958618164 7.1253814697265625
296 1 4.1168365478515625 9.92829704284668 7.800111293792725
297 1 5.641226291656494 11.20988655090332 7.120401382446289
298 1 7.437076568603516 9.250551223754883 10.184141159057617
299 1 6.186916351318359 8.78567123413086 11.82143497467041
300 1 7.529016494750977 7.360771179199219 11.10551643371582
301 2 9.096331596374512 4.274186611175537 12.560772895812988
302 2 9.75170612335205 3.274876832962036 11.07369613647461
303 2 8.630396842956543 3.6266863346099854 9.95163631439209
304 2 8.906216621398926 2.898076295852661 8.642497062683105
305 2 8.852726936340332 1.3491765260696411 8.654747009277344
306 2 9.232516288757324 0.579076886177063 7.353926181793213
307 2 8.679136276245117 24.922277450561523 7.257706165313721
308 2 7.265986442565918 24.83147621154785 6.519196510314941
309 2 6.113526344299316 25.192476272583008 7.513166427612305
310 2 4.653406143188477 24.917476654052734 6.96665620803833
311 2 4.145716667175293 0.19957652688026428 6.0650763511657715
312 2 4.0289764404296875 25.646976470947266 4.603346824645996
313 2 3.9298765659332275 1.0843764543533325 3.6845762729644775
314 2 4.060726165771484 0.8587762117385864 2.182476282119751
315 2 3.860856294631958 2.2045767307281494 1.4921761751174927
316 2 3.8624966144561768 2.22477650642395 25.724477767944336
317 2 3.3438265323638916 3.6005966663360596 25.2288761138916
318 2 3.3636868000030518 3.61238694190979 23.662677764892578
319 2 2.954566240310669 4.951646327972412 23.226877212524414
320 2 3.232116460800171 4.753246307373047 21.457080841064453
321 2 22.185537338256836 10.560181617736816 6.769841194152832
322 2 23.659276962280273 9.648496627807617 7.118706226348877
323 2 24.74237632751465 10.61182689666748 7.512746334075928
324 2 25.365177154541016 11.512826919555664 6.31131649017334
325 2 0.4300767481327057 12.620135307312012 6.86112642288208
326 2 0.82227623462677 13.675775527954102 5.8475565910339355
327 2 2.29457688331604 13.56187915802002 5.5450263023376465
328 2 2.6101763248443604 14.14095687866211 4.10844612121582
329 2 2.7508766651153564 13.071799278259277 3.0432169437408447
330 2 2.846776247024536 13.653383255004883 1.6155768632888794
331 2 1.6480761766433716 13.178234100341797 0.6452761888504028
332 2 0.2593766748905182 13.799407958984375 0.9676762819290161
333 2 25.06357765197754 13.384150505065918 25.725177764892578
334 2 23.591876983642578 14.024316787719727 0.0060769557021558285
335 2 22.693286895751953 13.572904586791992 24.6746768951416
336 2 21.402585983276367 14.349396705627441 24.413976669311523
337 2 20.82953643798828 13.997756958007812 22.936376571655273
338 2 21.300687789916992 15.069356918334961 21.889957427978516
339 2 20.757356643676758 14.648077011108398 20.477746963500977
340 2 20.912765502929688 16.126066207885742 19.401805877685547
341 2 21.018726348876953 23.944427490234375 11.418381690979004
342 2 21.98643684387207 25.519777297973633 11.332986831665039
343 2 23.285877227783203 25.737577438354492 12.12391471862793
344 2 23.88077735900879 1.3775769472122192 12.106204986572266
345 2 25.10477638244629 1.3675767183303833 13.009583473205566
346 2 25.821475982666016 2.6724770069122314 13.114001274108887
347 2 1.3941766023635864 2.2998764514923096 13.651905059814453
348 2 2.427476167678833 3.5065462589263916 13.471485137939453
349 2 3.92803692817688 3.116196870803833 13.529452323913574
350 2 4.395686149597168 2.222377061843872 12.292943954467773
351 2 5.8699164390563965 1.6572762727737427 12.40255069732666
352 2 5.781066417694092 0.0749761089682579 12.665411949157715
353 2 5.567696571350098 25.702577590942383 14.215316772460938
354 2 5.445266246795654 24.20897674560547 14.643606185913086
355 2 5.481106281280518 24.214977264404297 16.191057205200195
356 2 5.340086460113525 22.8367977142334 16.898197174072266
357 2 6.355606555938721 21.833696365356445 16.318647384643555
358 2 6.109166145324707 20.421276092529297 16.98854637145996
359 2 7.054086208343506 19.36101722717285 16.31377601623535
360 2 6.253520965576172 17.80517578125 17.077655792236328
361 2 13.984210968017578 11.625651359558105 1.9088265895843506
362 2 14.192426681518555 10.901396751403809 3.5590670108795166
363 2 13.409329414367676 9.751276969909668 4.195075988769531
364 2 13.668344497680664 9.579846382141113 5.748316287994385
365 2 12.681139945983887 10.373556137084961 6.6341962814331055
366 2 13.212366104125977 10.40839672088623 8.130616188049316
367 2 12.16431713104248 10.966136932373047 9.146466255187988
368 2 12.65534782409668 10.818136215209961 10.64699649810791
369 2 11.417516708374023 10.500876426696777 11.55462646484375
370 2 11.706806182861328 9.993326187133789 12.971434593200684
371 2 12.105085372924805 8.429737091064453 12.921802520751953
372 2 13.67266845703125 8.076706886291504 13.166050910949707
373 2 13.891931533813477 6.508326530456543 13.123607635498047
374 2 15.356196403503418 5.907876491546631 13.241620063781738
375 2 15.392836570739746 4.4384965896606445 12.965306282043457
376 2 16.68339729309082 3.7449467182159424 13.347614288330078
377 2 16.361536026000977 2.141676187515259 13.39033031463623
378 2 17.601076126098633 1.2514764070510864 13.443495750427246
379 2 17.236526489257812 25.63067626953125 13.662312507629395
380 2 18.514087677001953 24.614625930786133 14.395540237426758
381 2 20.684906005859375 21.174652099609375 21.664531707763672
382 2 22.289196014404297 21.905136108398438 22.132007598876953
383 2 23.211477279663086 21.770946502685547 20.868295669555664
384 2 24.762277603149414 21.95128631591797 21.051557540893555
385 2 25.341676712036133 20.93251609802246 22.03279685974121
386 2 1.0540763139724731 21.329757690429688 22.420886993408203
387 2 1.9466763734817505 20.153297424316406 22.535097122192383
388 2 3.375626802444458 20.535966873168945 23.061477661132812
389 2 4.549066543579102 19.818756103515625 22.305767059326172
390 2 6.021396160125732 20.18455696105957 22.731157302856445
391 2 6.931396484375 20.01694679260254 21.43729591369629
392 2 8.437146186828613 20.291236877441406 21.6680965423584
393 2 8.733526229858398 21.661396026611328 22.465356826782227
394 2 10.183966636657715 22.213926315307617 22.615346908569336
395 2 10.262016296386719 23.576576232910156 23.476577758789062
396 2 11.165836334228516 24.767576217651367 22.87477684020996
397 2 12.73125171661377 24.35667610168457 23.115476608276367
398 2 13.76173210144043 25.524776458740234 23.038877487182617
399 2 15.103866577148438 25.065176010131836 23.623876571655273
400 2 16.021560668945312 0.8083263635635376 23.791576385498047
401 2 15.217416763305664 15.185946464538574 3.6397716999053955
402 2 13.446340560913086 15.55109691619873 3.176586389541626
403 2 12.653776168823242 14.991466522216797 1.9018765687942505
404 2 11.943492889404297 16.117366790771484 1.131276249885559
405 2 10.804316520690918 15.727866172790527 0.20947661995887756
406 2 11.29677677154541 15.266616821289062 24.636775970458984
407 2 10.061436653137207 14.806646347045898 23.812177658081055
408 2 10.409236907958984 14.344406127929688 22.334976196289062
409 2 10.744706153869629 15.560086250305176 21.46451759338379
410 2 12.20242691040039 15.55424690246582 20.849916458129883
411 2 12.363859176635742 16.896596908569336 20.030916213989258
412 2 13.68458080291748 17.083335876464844 19.15646743774414
413 2 15.009136199951172 17.095565795898438 20.065977096557617
414 2 16.37947654724121 17.256277084350586 19.18647575378418
415 2 17.653066635131836 17.222017288208008 20.043506622314453
416 2 17.5809268951416 18.11377716064453 21.33250617980957
417 2 18.867246627807617 18.090486526489258 22.065677642822266
418 2 18.85736656188965 18.895505905151367 23.429977416992188
419 2 20.178756713867188 18.86638641357422 24.263776779174805
420 2 19.741361618041992 19.510128021240234 12.952527046203613
421 2 0.8338767290115356 7.903986930847168 20.73750114440918
422 2 0.1777764856815338 9.568596839904785 20.8226261138916
423 2 0.5593768358230591 10.118706703186035 19.46622657775879
424 2 2.0857765674591064 10.274096488952637 19.1309757232666
425 2 2.3158762454986572 11.055086135864258 17.801345825195312
426 2 3.874046564102173 11.29279613494873 17.521257400512695
427 2 4.068586349487305 12.196292877197266 16.283506393432617
428 2 3.5168564319610596 13.697358131408691 16.42256736755371
429 2 3.8315670490264893 14.528186798095703 15.182726860046387
430 2 3.0597269535064697 14.04046630859375 13.857527732849121
431 2 3.5094664096832275 14.882436752319336 12.61518383026123
432 2 3.5567467212677 14.154316902160645 11.170886993408203
433 2 3.7903263568878174 15.223026275634766 10.006036758422852
434 2 5.149796485900879 15.938206672668457 9.911396026611328
435 2 5.253206253051758 17.148136138916016 10.902626037597656
436 2 6.2589263916015625 18.318326950073242 10.48781681060791
437 2 7.726516246795654 17.877225875854492 10.032096862792969
438 2 8.728596687316895 18.9339656829834 10.343426704406738
439 2 9.883166313171387 19.072166442871094 9.250146865844727
440 2 10.910696029663086 20.454517364501953 9.900786399841309
441 2 14.961931228637695 8.68407154083252 24.265426635742188
442 2 16.07466697692871 8.340046882629395 23.011775970458984
443 2 17.604646682739258 8.032276153564453 23.051876068115234
444 2 18.507476806640625 9.3378267288208 23.180877685546875
445 2 20.076967239379883 9.09317684173584 22.988176345825195
446 2 20.910717010498047 8.336026191711426 24.03957748413086
447 2 22.408706665039062 8.864176750183105 24.012676239013672
448 2 23.445276260375977 8.14859676361084 24.904176712036133
449 2 23.11617660522461 8.216547012329102 0.6216765642166138
450 2 22.745777130126953 6.856906414031982 1.2095767259597778
451 2 21.846277236938477 7.053046226501465 2.471376657485962
452 2 21.649837493896484 5.7434563636779785 3.350877046585083
453 2 20.80359649658203 4.641986846923828 2.7570765018463135
454 2 20.74505615234375 3.3477566242218018 3.5846168994903564
455 2 19.694746017456055 2.381777048110962 2.8603765964508057
456 2 18.202945709228516 2.5919764041900635 3.404686212539673
457 2 17.14698600769043 1.8279763460159302 2.6195766925811768
458 2 15.761716842651367 2.2291767597198486 3.054766893386841
459 2 14.73132610321045 1.112876057624817 2.566477060317993
460 2 14.755151748657227 12.939226150512695 3.97188663482666
461 2 19.715381622314453 24.18112564086914 2.9860966205596924
462 2 18.999496459960938 22.767696380615234 3.8761866092681885
463 2 18.694656372070312 23.252676010131836 5.350826263427734
464 2 18.81033706665039 22.164997100830078 6.503426551818848
465 2 20.283706665039062 21.6652774810791 6.787286281585693
466 2 20.270856857299805 20.648767471313477 7.896706581115723
467 2 21.79644775390625 20.224956512451172 8.213216781616211
468 2 22.004026412963867 19.191587448120117 9.439726829528809
469 2 21.150917053222656 19.54356575012207 10.730276107788086
470 2 21.694005966186523 18.906816482543945 12.074017524719238
471 2 20.511137008666992 18.430076599121094 12.955434799194336
472 2 20.86484718322754 17.845867156982422 14.30229663848877
473 2 20.013656616210938 16.634777069091797 14.685466766357422
474 2 20.29773712158203 15.219386100769043 14.008926391601562
475 2 19.492366790771484 14.070266723632812 14.661856651306152
476 2 20.213577270507812 12.685812950134277 14.641636848449707
477 2 19.420106887817383 11.79594612121582 15.60140609741211
478 2 19.96597671508789 10.303436279296875 15.605626106262207
479 2 19.154376983642578 9.383026123046875 16.484516143798828
480 2 19.865642547607422 7.749991416931152 15.89915657043457
481 2 12.76824951171875 2.001426935195923 13.562265396118164
482 2 12.705769538879395 0.974676251411438 15.1334867477417
483 2 11.809576988220215 1.3568764925003052 16.41055679321289
484 2 12.049135208129883 2.6948769092559814 17.111125946044922
485 2 11.274386405944824 2.745276689529419 18.481687545776367